<?xml version="1.0" encoding="UTF-8"?>

<!-- generated on 2025-09-06 13:35:55 by Eclipse SUMO sumo Version 1.24.0
<sumoConfiguration xmlns:xsi="http://www.w3.org/2001/XMLSchema-instance" xsi:noNamespaceSchemaLocation="http://sumo.dlr.de/xsd/sumoConfiguration.xsd">

    <input>
        <net-file value="simple_intersection.net.xml"/>
        <route-files value="proper_routes.rou.xml"/>
    </input>

    <output>
        <netstate-dump value="simulation_netstate.xml"/>
        <fcd-output value="simulation_fcd.xml"/>
    </output>

    <time>
        <begin value="0"/>
        <end value="300"/>
        <step-length value="1"/>
    </time>

    <processing>
        <ignore-junction-blocker value="1"/>
        <ignore-route-errors value="1"/>
    </processing>

    <report>
        <verbose value="1"/>
        <no-step-log value="1"/>
    </report>

</sumoConfiguration>
-->

<netstate xmlns:xsi="http://www.w3.org/2001/XMLSchema-instance" xsi:noNamespaceSchemaLocation="http://sumo.dlr.de/xsd/netstate_file.xsd">
    <timestep time="0.00">
        <edge id="north">
            <lane id="north_0">
                <vehicle id="veh_0" pos="12.10" speed="0.00"/>
            </lane>
        </edge>
    </timestep>
    <timestep time="1.00">
        <edge id="north">
            <lane id="north_0">
                <vehicle id="veh_0" pos="12.98" speed="0.88"/>
            </lane>
        </edge>
    </timestep>
    <timestep time="2.00">
        <edge id="north">
            <lane id="north_0">
                <vehicle id="veh_0" pos="14.80" speed="1.82"/>
            </lane>
        </edge>
        <edge id="south">
            <lane id="south_0">
                <vehicle id="veh_1" pos="5.10" speed="0.00"/>
            </lane>
        </edge>
    </timestep>
    <timestep time="3.00">
        <edge id="north">
            <lane id="north_0">
                <vehicle id="veh_0" pos="17.81" speed="3.01"/>
            </lane>
        </edge>
        <edge id="south">
            <lane id="south_0">
                <vehicle id="veh_1" pos="7.70" speed="2.60"/>
            </lane>
        </edge>
    </timestep>
    <timestep time="4.00">
        <edge id="north">
            <lane id="north_0">
                <vehicle id="veh_0" pos="21.84" speed="4.03"/>
            </lane>
        </edge>
        <edge id="south">
            <lane id="south_0">
                <vehicle id="veh_1" pos="12.49" speed="4.79"/>
            </lane>
        </edge>
        <edge id="east">
            <lane id="east_0">
                <vehicle id="veh_2" pos="5.10" speed="0.00"/>
            </lane>
        </edge>
    </timestep>
    <timestep time="5.00">
        <edge id="north">
            <lane id="north_0">
                <vehicle id="veh_0" pos="26.85" speed="5.02"/>
            </lane>
        </edge>
        <edge id="south">
            <lane id="south_0">
                <vehicle id="veh_1" pos="18.96" speed="6.47"/>
            </lane>
        </edge>
        <edge id="east">
            <lane id="east_0">
                <vehicle id="veh_2" pos="6.85" speed="1.75"/>
            </lane>
        </edge>
    </timestep>
    <timestep time="6.00">
        <edge id="north">
            <lane id="north_0">
                <vehicle id="veh_0" pos="33.06" speed="6.20"/>
            </lane>
        </edge>
        <edge id="south">
            <lane id="south_0">
                <vehicle id="veh_1" pos="27.18" speed="8.22"/>
            </lane>
        </edge>
        <edge id="east">
            <lane id="east_0">
                <vehicle id="veh_2" pos="10.51" speed="3.66"/>
            </lane>
        </edge>
        <edge id="west">
            <lane id="west_0">
                <vehicle id="veh_3" pos="5.10" speed="0.00"/>
            </lane>
        </edge>
    </timestep>
    <timestep time="7.00">
        <edge id="north">
            <lane id="north_0">
                <vehicle id="veh_0" pos="40.19" speed="7.13"/>
            </lane>
        </edge>
        <edge id="south">
            <lane id="south_0">
                <vehicle id="veh_1" pos="37.11" speed="9.93"/>
            </lane>
        </edge>
        <edge id="east">
            <lane id="east_0">
                <vehicle id="veh_2" pos="16.25" speed="5.75"/>
            </lane>
        </edge>
        <edge id="west">
            <lane id="west_0">
                <vehicle id="veh_3" pos="7.44" speed="2.34"/>
            </lane>
        </edge>
    </timestep>
    <timestep time="8.00">
        <edge id="north">
            <lane id="north_0">
                <vehicle id="veh_4" pos="12.10" speed="0.00"/>
                <vehicle id="veh_0" pos="48.43" speed="8.24"/>
            </lane>
        </edge>
        <edge id="south">
            <lane id="south_0">
                <vehicle id="veh_1" pos="48.41" speed="11.30"/>
            </lane>
        </edge>
        <edge id="east">
            <lane id="east_0">
                <vehicle id="veh_2" pos="23.58" speed="7.33"/>
            </lane>
        </edge>
        <edge id="west">
            <lane id="west_0">
                <vehicle id="veh_3" pos="11.22" speed="3.78"/>
            </lane>
        </edge>
    </timestep>
    <timestep time="9.00">
        <edge id="north">
            <lane id="north_0">
                <vehicle id="veh_4" pos="13.03" speed="0.93"/>
                <vehicle id="veh_0" pos="57.68" speed="9.25"/>
            </lane>
        </edge>
        <edge id="south">
            <lane id="south_0">
                <vehicle id="veh_1" pos="61.06" speed="12.64"/>
            </lane>
        </edge>
        <edge id="east">
            <lane id="east_0">
                <vehicle id="veh_2" pos="32.51" speed="8.92"/>
            </lane>
        </edge>
        <edge id="west">
            <lane id="west_0">
                <vehicle id="veh_3" pos="17.45" speed="6.23"/>
            </lane>
        </edge>
    </timestep>
    <timestep time="10.00">
        <edge id="north">
            <lane id="north_0">
                <vehicle id="veh_4" pos="14.92" speed="1.89"/>
                <vehicle id="veh_0" pos="68.13" speed="10.45"/>
            </lane>
        </edge>
        <edge id="south">
            <lane id="south_0">
                <vehicle id="veh_5" pos="5.10" speed="0.00"/>
                <vehicle id="veh_1" pos="73.08" speed="12.02"/>
            </lane>
        </edge>
        <edge id="east">
            <lane id="east_0">
                <vehicle id="veh_2" pos="43.52" speed="11.01"/>
            </lane>
        </edge>
        <edge id="west">
            <lane id="west_0">
                <vehicle id="veh_3" pos="25.55" speed="8.09"/>
            </lane>
        </edge>
    </timestep>
    <timestep time="11.00">
        <edge id="north">
            <lane id="north_0">
                <vehicle id="veh_4" pos="17.85" speed="2.93"/>
                <vehicle id="veh_0" pos="79.61" speed="11.48"/>
            </lane>
        </edge>
        <edge id="south">
            <lane id="south_0">
                <vehicle id="veh_5" pos="6.82" speed="1.72"/>
                <vehicle id="veh_1" pos="86.01" speed="12.93"/>
            </lane>
        </edge>
        <edge id="east">
            <lane id="east_0">
                <vehicle id="veh_2" pos="56.27" speed="12.75"/>
            </lane>
        </edge>
        <edge id="west">
            <lane id="west_0">
                <vehicle id="veh_3" pos="35.94" speed="10.40"/>
            </lane>
        </edge>
    </timestep>
    <timestep time="12.00">
        <edge id="north">
            <lane id="north_0">
                <vehicle id="veh_4" pos="21.88" speed="4.03"/>
                <vehicle id="veh_0" pos="92.08" speed="12.47"/>
            </lane>
        </edge>
        <edge id="south">
            <lane id="south_0">
                <vehicle id="veh_5" pos="10.13" speed="3.31"/>
                <vehicle id="veh_1" pos="98.46" speed="12.45"/>
            </lane>
        </edge>
        <edge id="east">
            <lane id="east_0">
                <vehicle id="veh_6" pos="5.10" speed="0.00"/>
                <vehicle id="veh_2" pos="69.79" speed="13.52"/>
            </lane>
        </edge>
        <edge id="west">
            <lane id="west_0">
                <vehicle id="veh_3" pos="48.44" speed="12.49"/>
            </lane>
        </edge>
    </timestep>
    <timestep time="13.00">
        <edge id="north">
            <lane id="north_0">
                <vehicle id="veh_4" pos="26.80" speed="4.92"/>
            </lane>
        </edge>
        <edge id="south">
            <lane id="south_0">
                <vehicle id="veh_5" pos="14.98" speed="4.84"/>
            </lane>
        </edge>
        <edge id="east">
            <lane id="east_0">
                <vehicle id="veh_6" pos="7.07" speed="1.97"/>
                <vehicle id="veh_2" pos="83.39" speed="13.60"/>
            </lane>
        </edge>
        <edge id="west">
            <lane id="west_0">
                <vehicle id="veh_3" pos="62.31" speed="13.88"/>
            </lane>
        </edge>
    </timestep>
    <timestep time="14.00">
        <edge id="north">
            <lane id="north_0">
                <vehicle id="veh_4" pos="32.80" speed="6.00"/>
            </lane>
        </edge>
        <edge id="south">
            <lane id="south_0">
                <vehicle id="veh_5" pos="21.82" speed="6.84"/>
            </lane>
        </edge>
        <edge id="east">
            <lane id="east_0">
                <vehicle id="veh_6" pos="11.02" speed="3.95"/>
                <vehicle id="veh_2" pos="96.74" speed="13.36"/>
            </lane>
        </edge>
        <edge id="west">
            <lane id="west_0">
                <vehicle id="veh_7" pos="5.10" speed="0.00"/>
                <vehicle id="veh_3" pos="76.52" speed="14.20"/>
            </lane>
        </edge>
    </timestep>
    <timestep time="15.00">
        <edge id="north">
            <lane id="north_0">
                <vehicle id="veh_4" pos="39.75" speed="6.95"/>
            </lane>
        </edge>
        <edge id="south">
            <lane id="south_0">
                <vehicle id="veh_5" pos="30.37" speed="8.55"/>
            </lane>
        </edge>
        <edge id="east">
            <lane id="east_0">
                <vehicle id="veh_6" pos="16.29" speed="5.28"/>
            </lane>
        </edge>
        <edge id="west">
            <lane id="west_0">
                <vehicle id="veh_7" pos="6.59" speed="1.49"/>
                <vehicle id="veh_3" pos="90.43" speed="13.91"/>
            </lane>
        </edge>
    </timestep>
    <timestep time="16.00">
        <edge id="north">
            <lane id="north_0">
                <vehicle id="veh_8" pos="12.10" speed="0.00"/>
                <vehicle id="veh_4" pos="47.89" speed="8.14"/>
            </lane>
        </edge>
        <edge id="south">
            <lane id="south_0">
                <vehicle id="veh_5" pos="41.07" speed="10.70"/>
            </lane>
        </edge>
        <edge id="east">
            <lane id="east_0">
                <vehicle id="veh_6" pos="23.44" speed="7.15"/>
            </lane>
        </edge>
        <edge id="west">
            <lane id="west_0">
                <vehicle id="veh_7" pos="10.48" speed="3.89"/>
            </lane>
        </edge>
    </timestep>
    <timestep time="17.00">
        <edge id="north">
            <lane id="north_0">
                <vehicle id="veh_8" pos="13.19" speed="1.09"/>
                <vehicle id="veh_4" pos="57.04" speed="9.15"/>
            </lane>
        </edge>
        <edge id="south">
            <lane id="south_0">
                <vehicle id="veh_5" pos="51.93" speed="10.86"/>
            </lane>
        </edge>
        <edge id="east">
            <lane id="east_0">
                <vehicle id="veh_6" pos="31.92" speed="8.48"/>
            </lane>
        </edge>
        <edge id="west">
            <lane id="west_0">
                <vehicle id="veh_7" pos="16.52" speed="6.05"/>
            </lane>
        </edge>
    </timestep>
    <timestep time="18.00">
        <edge id="north">
            <lane id="north_0">
                <vehicle id="veh_8" pos="15.14" speed="1.95"/>
                <vehicle id="veh_4" pos="67.17" speed="10.12"/>
            </lane>
        </edge>
        <edge id="south">
            <lane id="south_0">
                <vehicle id="veh_9" pos="5.10" speed="0.00"/>
                <vehicle id="veh_5" pos="62.41" speed="10.48"/>
            </lane>
        </edge>
        <edge id="east">
            <lane id="east_0">
                <vehicle id="veh_6" pos="42.30" speed="10.38"/>
            </lane>
        </edge>
        <edge id="west">
            <lane id="west_0">
                <vehicle id="veh_7" pos="24.60" speed="8.08"/>
            </lane>
        </edge>
    </timestep>
    <timestep time="19.00">
        <edge id="north">
            <lane id="north_0">
                <vehicle id="veh_8" pos="17.97" speed="2.83"/>
                <vehicle id="veh_4" pos="78.19" speed="11.03"/>
            </lane>
        </edge>
        <edge id="south">
            <lane id="south_0">
                <vehicle id="veh_9" pos="7.58" speed="2.48"/>
                <vehicle id="veh_5" pos="73.27" speed="10.86"/>
            </lane>
        </edge>
        <edge id="east">
            <lane id="east_0">
                <vehicle id="veh_6" pos="54.80" speed="12.50"/>
            </lane>
        </edge>
        <edge id="west">
            <lane id="west_0">
                <vehicle id="veh_7" pos="34.45" speed="9.85"/>
            </lane>
        </edge>
    </timestep>
    <timestep time="20.00">
        <edge id="north">
            <lane id="north_0">
                <vehicle id="veh_8" pos="21.81" speed="3.84"/>
                <vehicle id="veh_4" pos="90.28" speed="12.09"/>
            </lane>
        </edge>
        <edge id="south">
            <lane id="south_0">
                <vehicle id="veh_9" pos="12.37" speed="4.79"/>
                <vehicle id="veh_5" pos="83.91" speed="10.63"/>
            </lane>
        </edge>
        <edge id="east">
            <lane id="east_0">
                <vehicle id="veh_10" pos="5.10" speed="0.00"/>
                <vehicle id="veh_6" pos="68.41" speed="13.61"/>
            </lane>
        </edge>
        <edge id="west">
            <lane id="west_0">
                <vehicle id="veh_7" pos="46.71" speed="12.26"/>
            </lane>
        </edge>
    </timestep>
    <timestep time="21.00">
        <edge id="north">
            <lane id="north_0">
                <vehicle id="veh_8" pos="26.83" speed="5.02"/>
            </lane>
        </edge>
        <edge id="south">
            <lane id="south_0">
                <vehicle id="veh_9" pos="19.52" speed="7.15"/>
                <vehicle id="veh_5" pos="94.21" speed="10.30"/>
            </lane>
        </edge>
        <edge id="east">
            <lane id="east_0">
                <vehicle id="veh_10" pos="7.16" speed="2.06"/>
                <vehicle id="veh_6" pos="82.82" speed="14.41"/>
            </lane>
        </edge>
        <edge id="west">
            <lane id="west_0">
                <vehicle id="veh_7" pos="58.03" speed="11.31"/>
            </lane>
        </edge>
    </timestep>
    <timestep time="22.00">
        <edge id="north">
            <lane id="north_0">
                <vehicle id="veh_8" pos="32.95" speed="6.12"/>
            </lane>
        </edge>
        <edge id="south">
            <lane id="south_0">
                <vehicle id="veh_9" pos="28.98" speed="9.46"/>
            </lane>
        </edge>
        <edge id="east">
            <lane id="east_0">
                <vehicle id="veh_10" pos="10.57" speed="3.41"/>
                <vehicle id="veh_6" pos="96.50" speed="13.69"/>
            </lane>
        </edge>
        <edge id="west">
            <lane id="west_0">
                <vehicle id="veh_11" pos="5.10" speed="0.00"/>
                <vehicle id="veh_7" pos="69.50" speed="11.47"/>
            </lane>
        </edge>
    </timestep>
    <timestep time="23.00">
        <edge id="north">
            <lane id="north_0">
                <vehicle id="veh_8" pos="39.99" speed="7.04"/>
            </lane>
        </edge>
        <edge id="south">
            <lane id="south_0">
                <vehicle id="veh_9" pos="40.68" speed="11.70"/>
            </lane>
        </edge>
        <edge id="east">
            <lane id="east_0">
                <vehicle id="veh_10" pos="15.64" speed="5.07"/>
            </lane>
        </edge>
        <edge id="west">
            <lane id="west_0">
                <vehicle id="veh_11" pos="6.71" speed="1.61"/>
                <vehicle id="veh_7" pos="81.33" speed="11.83"/>
            </lane>
        </edge>
    </timestep>
    <timestep time="24.00">
        <edge id="north">
            <lane id="north_0">
                <vehicle id="veh_12" pos="12.10" speed="0.00"/>
                <vehicle id="veh_8" pos="48.17" speed="8.18"/>
            </lane>
        </edge>
        <edge id="south">
            <lane id="south_0">
                <vehicle id="veh_9" pos="52.13" speed="11.45"/>
            </lane>
        </edge>
        <edge id="east">
            <lane id="east_0">
                <vehicle id="veh_10" pos="23.30" speed="7.67"/>
            </lane>
        </edge>
        <edge id="west">
            <lane id="west_0">
                <vehicle id="veh_11" pos="9.66" speed="2.95"/>
                <vehicle id="veh_7" pos="92.99" speed="11.66"/>
            </lane>
        </edge>
    </timestep>
    <timestep time="25.00">
        <edge id="north">
            <lane id="north_0">
                <vehicle id="veh_12" pos="13.29" speed="1.19"/>
                <vehicle id="veh_8" pos="57.21" speed="9.04"/>
            </lane>
        </edge>
        <edge id="south">
            <lane id="south_0">
                <vehicle id="veh_9" pos="63.30" speed="11.17"/>
            </lane>
        </edge>
        <edge id="east">
            <lane id="east_0">
                <vehicle id="veh_10" pos="33.00" speed="9.70"/>
            </lane>
        </edge>
        <edge id="west">
            <lane id="west_0">
                <vehicle id="veh_11" pos="14.20" speed="4.54"/>
            </lane>
        </edge>
    </timestep>
    <timestep time="26.00">
        <edge id="north">
            <lane id="north_0">
                <vehicle id="veh_12" pos="15.56" speed="2.27"/>
                <vehicle id="veh_8" pos="67.20" speed="9.99"/>
            </lane>
        </edge>
        <edge id="south">
            <lane id="south_0">
                <vehicle id="veh_13" pos="5.10" speed="0.00"/>
                <vehicle id="veh_9" pos="75.04" speed="11.74"/>
            </lane>
        </edge>
        <edge id="east">
            <lane id="east_0">
                <vehicle id="veh_10" pos="45.24" speed="12.23"/>
            </lane>
        </edge>
        <edge id="west">
            <lane id="west_0">
                <vehicle id="veh_11" pos="20.78" speed="6.58"/>
            </lane>
        </edge>
    </timestep>
    <timestep time="27.00">
        <edge id="north">
            <lane id="north_0">
                <vehicle id="veh_12" pos="18.98" speed="3.42"/>
                <vehicle id="veh_8" pos="78.35" speed="11.15"/>
            </lane>
        </edge>
        <edge id="south">
            <lane id="south_0">
                <vehicle id="veh_13" pos="7.20" speed="2.10"/>
                <vehicle id="veh_9" pos="85.89" speed="10.85"/>
            </lane>
        </edge>
        <edge id="east">
            <lane id="east_0">
                <vehicle id="veh_10" pos="59.67" speed="14.43"/>
            </lane>
        </edge>
        <edge id="west">
            <lane id="west_0">
                <vehicle id="veh_11" pos="29.34" speed="8.56"/>
            </lane>
        </edge>
    </timestep>
    <timestep time="28.00">
        <edge id="north">
            <lane id="north_0">
                <vehicle id="veh_12" pos="23.26" speed="4.28"/>
                <vehicle id="veh_8" pos="90.55" speed="12.20"/>
            </lane>
        </edge>
        <edge id="south">
            <lane id="south_0">
                <vehicle id="veh_13" pos="10.65" speed="3.45"/>
                <vehicle id="veh_9" pos="96.71" speed="10.82"/>
            </lane>
        </edge>
        <edge id="east">
            <lane id="east_0">
                <vehicle id="veh_14" pos="5.10" speed="0.00"/>
                <vehicle id="veh_10" pos="73.81" speed="14.15"/>
            </lane>
        </edge>
        <edge id="west">
            <lane id="west_0">
                <vehicle id="veh_11" pos="40.01" speed="10.68"/>
            </lane>
        </edge>
    </timestep>
    <timestep time="29.00">
        <edge id="north">
            <lane id="north_0">
                <vehicle id="veh_12" pos="28.66" speed="5.40"/>
            </lane>
        </edge>
        <edge id="south">
            <lane id="south_0">
                <vehicle id="veh_13" pos="16.60" speed="5.95"/>
            </lane>
        </edge>
        <edge id="east">
            <lane id="east_0">
                <vehicle id="veh_14" pos="6.47" speed="1.37"/>
                <vehicle id="veh_10" pos="88.61" speed="14.79"/>
            </lane>
        </edge>
        <edge id="west">
            <lane id="west_0">
                <vehicle id="veh_11" pos="52.69" speed="12.67"/>
            </lane>
        </edge>
    </timestep>
    <timestep time="30.00">
        <edge id="north">
            <lane id="north_0">
                <vehicle id="veh_12" pos="35.20" speed="6.54"/>
            </lane>
        </edge>
        <edge id="south">
            <lane id="south_0">
                <vehicle id="veh_13" pos="24.89" speed="8.30"/>
            </lane>
        </edge>
        <edge id="east">
            <lane id="east_0">
                <vehicle id="veh_14" pos="9.68" speed="3.21"/>
            </lane>
        </edge>
        <edge id="west">
            <lane id="west_0">
                <vehicle id="veh_15" pos="5.10" speed="0.00"/>
                <vehicle id="veh_11" pos="65.78" speed="13.09"/>
            </lane>
        </edge>
    </timestep>
    <timestep time="31.00">
        <edge id="north">
            <lane id="north_0">
                <vehicle id="veh_12" pos="42.73" speed="7.53"/>
            </lane>
        </edge>
        <edge id="south">
            <lane id="south_0">
                <vehicle id="veh_13" pos="34.84" speed="9.94"/>
            </lane>
        </edge>
        <edge id="east">
            <lane id="east_0">
                <vehicle id="veh_14" pos="15.40" speed="5.72"/>
            </lane>
        </edge>
        <edge id="west">
            <lane id="west_0">
                <vehicle id="veh_15" pos="7.06" speed="1.96"/>
                <vehicle id="veh_11" pos="79.64" speed="13.86"/>
            </lane>
        </edge>
    </timestep>
    <timestep time="32.00">
        <edge id="north">
            <lane id="north_0">
                <vehicle id="veh_12" pos="51.37" speed="8.64"/>
            </lane>
        </edge>
        <edge id="south">
            <lane id="south_0">
                <vehicle id="veh_13" pos="46.27" speed="11.44"/>
            </lane>
        </edge>
        <edge id="east">
            <lane id="east_0">
                <vehicle id="veh_14" pos="22.84" speed="7.44"/>
            </lane>
        </edge>
        <edge id="west">
            <lane id="west_0">
                <vehicle id="veh_15" pos="11.02" speed="3.96"/>
                <vehicle id="veh_11" pos="92.69" speed="13.05"/>
            </lane>
        </edge>
    </timestep>
    <timestep time="33.00">
        <edge id="north">
            <lane id="north_0">
                <vehicle id="veh_12" pos="60.92" speed="9.55"/>
            </lane>
        </edge>
        <edge id="south">
            <lane id="south_0">
                <vehicle id="veh_13" pos="59.46" speed="13.19"/>
            </lane>
        </edge>
        <edge id="east">
            <lane id="east_0">
                <vehicle id="veh_14" pos="32.81" speed="9.97"/>
            </lane>
        </edge>
        <edge id="west">
            <lane id="west_0">
                <vehicle id="veh_15" pos="17.42" speed="6.40"/>
            </lane>
        </edge>
    </timestep>
    <timestep time="34.00">
        <edge id="north">
            <lane id="north_0">
                <vehicle id="veh_12" pos="71.64" speed="10.72"/>
            </lane>
        </edge>
        <edge id="south">
            <lane id="south_0">
                <vehicle id="veh_13" pos="73.82" speed="14.36"/>
            </lane>
        </edge>
        <edge id="east">
            <lane id="east_0">
                <vehicle id="veh_14" pos="44.63" speed="11.82"/>
            </lane>
        </edge>
        <edge id="west">
            <lane id="west_0">
                <vehicle id="veh_15" pos="25.66" speed="8.24"/>
            </lane>
        </edge>
    </timestep>
    <timestep time="35.00">
        <edge id="north">
            <lane id="north_0">
                <vehicle id="veh_12" pos="83.32" speed="11.68"/>
            </lane>
        </edge>
        <edge id="south">
            <lane id="south_0">
                <vehicle id="veh_13" pos="88.50" speed="14.68"/>
            </lane>
        </edge>
        <edge id="east">
            <lane id="east_0">
                <vehicle id="veh_14" pos="57.91" speed="13.28"/>
            </lane>
        </edge>
        <edge id="west">
            <lane id="west_0">
                <vehicle id="veh_15" pos="35.55" speed="9.88"/>
            </lane>
        </edge>
    </timestep>
    <timestep time="36.00">
        <edge id="north">
            <lane id="north_0">
                <vehicle id="veh_12" pos="95.94" speed="12.62"/>
            </lane>
        </edge>
        <edge id="east">
            <lane id="east_0">
                <vehicle id="veh_14" pos="70.40" speed="12.49"/>
            </lane>
        </edge>
        <edge id="west">
            <lane id="west_0">
                <vehicle id="veh_15" pos="47.86" speed="12.31"/>
            </lane>
        </edge>
    </timestep>
    <timestep time="37.00">
        <edge id="east">
            <lane id="east_0">
                <vehicle id="veh_14" pos="83.74" speed="13.34"/>
            </lane>
        </edge>
        <edge id="west">
            <lane id="west_0">
                <vehicle id="veh_15" pos="59.59" speed="11.74"/>
            </lane>
        </edge>
    </timestep>
    <timestep time="38.00">
        <edge id="east">
            <lane id="east_0">
                <vehicle id="veh_14" pos="97.18" speed="13.44"/>
            </lane>
        </edge>
        <edge id="west">
            <lane id="west_0">
                <vehicle id="veh_15" pos="71.20" speed="11.60"/>
            </lane>
        </edge>
    </timestep>
    <timestep time="39.00">
        <edge id="west">
            <lane id="west_0">
                <vehicle id="veh_15" pos="83.02" speed="11.82"/>
            </lane>
        </edge>
    </timestep>
    <timestep time="40.00">
        <edge id="west">
            <lane id="west_0">
                <vehicle id="veh_15" pos="94.86" speed="11.84"/>
            </lane>
        </edge>
    </timestep>
    <timestep time="41.00"/>
    <timestep time="42.00"/>
    <timestep time="43.00"/>
    <timestep time="44.00"/>
    <timestep time="45.00"/>
    <timestep time="46.00"/>
    <timestep time="47.00"/>
    <timestep time="48.00"/>
    <timestep time="49.00"/>
    <timestep time="50.00"/>
    <timestep time="51.00"/>
    <timestep time="52.00"/>
    <timestep time="53.00"/>
    <timestep time="54.00"/>
    <timestep time="55.00"/>
    <timestep time="56.00"/>
    <timestep time="57.00"/>
    <timestep time="58.00"/>
    <timestep time="59.00"/>
    <timestep time="60.00"/>
    <timestep time="61.00"/>
    <timestep time="62.00"/>
    <timestep time="63.00"/>
    <timestep time="64.00"/>
    <timestep time="65.00"/>
    <timestep time="66.00"/>
    <timestep time="67.00"/>
    <timestep time="68.00"/>
    <timestep time="69.00"/>
    <timestep time="70.00"/>
    <timestep time="71.00"/>
    <timestep time="72.00"/>
    <timestep time="73.00"/>
    <timestep time="74.00"/>
    <timestep time="75.00"/>
    <timestep time="76.00"/>
    <timestep time="77.00"/>
    <timestep time="78.00"/>
    <timestep time="79.00"/>
    <timestep time="80.00"/>
    <timestep time="81.00"/>
    <timestep time="82.00"/>
    <timestep time="83.00"/>
    <timestep time="84.00"/>
    <timestep time="85.00"/>
    <timestep time="86.00"/>
    <timestep time="87.00"/>
    <timestep time="88.00"/>
    <timestep time="89.00"/>
    <timestep time="90.00"/>
    <timestep time="91.00"/>
    <timestep time="92.00"/>
    <timestep time="93.00"/>
    <timestep time="94.00"/>
    <timestep time="95.00"/>
    <timestep time="96.00"/>
    <timestep time="97.00"/>
    <timestep time="98.00"/>
    <timestep time="99.00"/>
    <timestep time="100.00"/>
    <timestep time="101.00"/>
    <timestep time="102.00"/>
    <timestep time="103.00"/>
    <timestep time="104.00"/>
    <timestep time="105.00"/>
    <timestep time="106.00"/>
    <timestep time="107.00"/>
    <timestep time="108.00"/>
    <timestep time="109.00"/>
    <timestep time="110.00"/>
    <timestep time="111.00"/>
    <timestep time="112.00"/>
    <timestep time="113.00"/>
    <timestep time="114.00"/>
    <timestep time="115.00"/>
    <timestep time="116.00"/>
    <timestep time="117.00"/>
    <timestep time="118.00"/>
    <timestep time="119.00"/>
    <timestep time="120.00"/>
    <timestep time="121.00"/>
    <timestep time="122.00"/>
    <timestep time="123.00"/>
    <timestep time="124.00"/>
    <timestep time="125.00"/>